LAMMPS data file - 3-arm polymer with detached terminal loops

22 atoms
21 bonds
0 angles
0 dihedrals
0 impropers

1 atom types
1 bond types

0.0 20.0 xlo xhi
0.0 20.0 ylo yhi
0.0 20.0 zlo zhi

Masses

1 12.011 # atom type 1 (example)

Atoms

1 1 1 0.000000 0.000000 0.100000
2 1 1 0.500000 0.000000 0.010000
3 1 1 1.000000 0.000000 0.020000
4 1 1 1.500000 0.000000 0.030000
5 1 1 2.277817 0.000000 0.150000
6 1 1 1.924264 0.353553 0.170000
7 1 1 1.570711 0.000000 0.150000
8 1 1 1.924264 -0.353553 0.130000
9 1 1 -0.250000 0.433013 0.010000
10 1 1 -0.500000 0.866025 0.020000
11 1 1 -0.750000 1.299038 0.030000
12 1 1 -1.138909 1.972648 0.200000
13 1 1 -1.268318 1.489685 0.220000
14 1 1 -0.785355 1.360275 0.200000
15 1 1 -0.655946 1.843238 0.180000
16 1 1 -0.250000 -0.433013 0.010000
17 1 1 -0.500000 -0.866025 0.020000
18 1 1 -0.750000 -1.299038 0.030000
19 1 1 -1.138909 -1.972648 0.250000
20 1 1 -0.655946 -1.843238 0.270000
21 1 1 -0.785355 -1.360275 0.250000
22 1 1 -1.268318 -1.489685 0.230000

Bonds

1 1 1 2
2 1 2 3
3 1 3 4
4 1 5 6
5 1 6 7
6 1 7 8
7 1 8 5
8 1 1 9
9 1 9 10
10 1 10 11
11 1 12 13
12 1 13 14
13 1 14 15
14 1 15 12
15 1 1 16
16 1 16 17
17 1 17 18
18 1 19 20
19 1 20 21
20 1 21 22
21 1 22 19
