ITEM: TIMESTEP
108
ITEM: NUMBER OF ATOMS
22
ITEM: BOX BOUNDS pp pp pp
0.0000000000000000e+00 2.0000000000000000e+01
0.0000000000000000e+00 2.0000000000000000e+01
0.0000000000000000e+00 2.0000000000000000e+01
ITEM: ATOMS id type mol x y z
1 1 1 0.070688 19.8295 17.2184
2 1 1 1.35388 19.8856 17.7298
3 1 1 2.66991 19.9205 17.9271
4 1 1 3.92711 19.9435 17.9118
5 1 1 9.15485 0.0541663 1.39502
6 1 1 8.80889 0.823346 1.99944
7 1 1 8.77854 19.8449 2.24794
8 1 1 8.95102 19.0817 1.56242
9 1 1 19.6653 1.37458 17.058
10 1 1 19.1592 2.86336 16.7001
11 1 1 18.71 4.06567 16.3473
12 1 1 15.0856 6.30025 2.2705
13 1 1 14.2004 6.12071 2.6586
14 1 1 15.09 5.93065 3.15249
15 1 1 15.9626 6.22126 2.7849
16 1 1 19.5019 18.2932 16.8151
17 1 1 18.8685 16.8245 16.2956
18 1 1 18.3395 15.668 15.8635
19 1 1 15.5618 14.0571 3.29909
20 1 1 16.2947 14.2419 4.00758
21 1 1 15.2791 14.4714 4.10821
22 1 1 14.5665 14.1843 3.32696
ITEM: TIMESTEP
5000
ITEM: NUMBER OF ATOMS
22
ITEM: BOX BOUNDS pp pp pp
0.0000000000000000e+00 2.0000000000000000e+01
0.0000000000000000e+00 2.0000000000000000e+01
0.0000000000000000e+00 2.0000000000000000e+01
ITEM: ATOMS id type mol x y z
1 1 1 19.966 19.8246 17.0682
2 1 1 1.21607 19.848 17.5857
3 1 1 2.49458 19.8953 17.8726
4 1 1 3.62891 19.9325 17.9069
5 1 1 9.12468 0.0957925 1.35179
6 1 1 8.84001 0.694645 1.97684
7 1 1 8.72713 19.8093 2.25665
8 1 1 8.97534 19.2136 1.6007
9 1 1 19.6384 1.19489 16.9538
10 1 1 19.2724 2.39933 16.7684
11 1 1 18.8772 3.61242 16.4875
12 1 1 15.1182 6.35515 2.2356
13 1 1 14.3089 6.13336 2.69837
14 1 1 15.0698 5.9452 3.20741
15 1 1 15.8719 6.18683 2.75629
16 1 1 19.4772 18.4354 16.7638
17 1 1 19.0658 17.2787 16.4328
18 1 1 18.5765 16.1411 16.0351
19 1 1 15.5887 14.0239 3.2581
20 1 1 16.1181 14.2441 3.96334
21 1 1 15.247 14.5099 4.10779
22 1 1 14.6976 14.1988 3.43312
ITEM: TIMESTEP
10000
ITEM: NUMBER OF ATOMS
22
ITEM: BOX BOUNDS pp pp pp
0.0000000000000000e+00 2.0000000000000000e+01
0.0000000000000000e+00 2.0000000000000000e+01
0.0000000000000000e+00 2.0000000000000000e+01
ITEM: ATOMS id type mol x y z
1 1 1 19.9684 19.784 16.8616
2 1 1 0.908084 19.799 17.2511
3 1 1 1.9794 19.8669 17.6736
4 1 1 2.95161 19.8872 17.9251
5 1 1 9.11771 0.15496 1.16147
6 1 1 8.85965 0.648566 2.05049
7 1 1 8.62547 19.7452 2.38979
8 1 1 9.04897 19.2776 1.61804
9 1 1 19.7002 0.604764 16.7927
10 1 1 19.4096 1.67217 16.8279
11 1 1 19.2487 2.56508 16.7777
12 1 1 15.1074 6.48777 2.16431
13 1 1 14.3879 6.16021 2.70552
14 1 1 15.1198 5.95051 3.33488
15 1 1 15.8328 6.11279 2.72209
16 1 1 19.5667 19.0251 16.7259
17 1 1 19.3609 18.0083 16.609
18 1 1 19.0392 17.2194 16.355
19 1 1 15.6163 13.9256 3.08625
20 1 1 16.0831 14.2256 3.96795
21 1 1 15.2312 14.6813 4.26087
22 1 1 14.7297 14.1958 3.49363
ITEM: TIMESTEP
15000
ITEM: NUMBER OF ATOMS
22
ITEM: BOX BOUNDS pp pp pp
0.0000000000000000e+00 2.0000000000000000e+01
0.0000000000000000e+00 2.0000000000000000e+01
0.0000000000000000e+00 2.0000000000000000e+01
ITEM: ATOMS id type mol x y z
1 1 1 0.247045 19.6536 16.6647
2 1 1 1.10209 19.7494 16.947
3 1 1 1.55817 19.8509 17.6234
4 1 1 2.3106 19.8325 18.0136
5 1 1 9.07593 0.218859 1.16543
6 1 1 8.89258 0.489748 2.01235
7 1 1 8.6022 19.7135 2.4309
8 1 1 9.05975 19.4135 1.64752
9 1 1 19.5768 0.283365 16.4067
10 1 1 19.5226 1.01109 16.9794
11 1 1 19.558 2.05231 17.0503
12 1 1 15.1409 6.59847 2.10071
13 1 1 14.5217 6.19278 2.74154
14 1 1 15.1577 5.93243 3.38905
15 1 1 15.7489 6.08034 2.61971
16 1 1 19.2282 19.5307 16.4861
17 1 1 19.8337 18.5518 16.986
18 1 1 19.2551 17.7993 16.4501
19 1 1 15.592 13.903 3.11999
20 1 1 15.9173 14.2246 3.899
21 1 1 15.2439 14.7494 4.24391
22 1 1 14.8541 14.268 3.56744
ITEM: TIMESTEP
20000
ITEM: NUMBER OF ATOMS
22
ITEM: BOX BOUNDS pp pp pp
0.0000000000000000e+00 2.0000000000000000e+01
0.0000000000000000e+00 2.0000000000000000e+01
0.0000000000000000e+00 2.0000000000000000e+01
ITEM: ATOMS id type mol x y z
1 1 1 0.0217134 19.4693 16.1759
2 1 1 1.31652 19.65 16.4393
3 1 1 1.2776 19.9192 17.8616
4 1 1 2.4853 19.8236 18.4523
5 1 1 9.0492 0.242843 1.05922
6 1 1 8.9182 0.476378 2.08244
7 1 1 8.53738 19.6484 2.47564
8 1 1 9.10116 19.4962 1.67605
9 1 1 19.6068 0.442748 15.88
10 1 1 19.6055 0.666602 17.1878
11 1 1 19.776 1.86292 17.3244
12 1 1 15.1237 6.7105 2.05196
13 1 1 14.6585 6.18804 2.6883
14 1 1 15.2344 5.85696 3.41727
15 1 1 15.6871 6.08323 2.5944
16 1 1 18.9589 19.1205 16.5204
17 1 1 19.9126 19.1204 17.1157
18 1 1 19.4806 18.2748 16.6029
19 1 1 15.5379 13.8068 3.0527
20 1 1 15.8854 14.1977 3.95031
21 1 1 15.256 14.9257 4.32237
22 1 1 14.8955 14.3332 3.57795
ITEM: TIMESTEP
25000
ITEM: NUMBER OF ATOMS
22
ITEM: BOX BOUNDS pp pp pp
0.0000000000000000e+00 2.0000000000000000e+01
0.0000000000000000e+00 2.0000000000000000e+01
0.0000000000000000e+00 2.0000000000000000e+01
ITEM: ATOMS id type mol x y z
1 1 1 0.0365519 19.5808 15.9472
2 1 1 0.599795 19.6638 16.8628
3 1 1 1.62849 19.7097 17.4139
4 1 1 2.03697 19.8615 18.4545
5 1 1 9.04516 0.302596 1.10958
6 1 1 8.91084 0.414644 2.03137
7 1 1 8.46719 19.6933 2.44231
8 1 1 9.13281 19.5302 1.72627
9 1 1 19.7808 0.495457 16.0455
10 1 1 19.7492 0.701897 16.8169
11 1 1 19.9536 1.28142 17.5983
12 1 1 15.1474 6.80047 2.06549
13 1 1 14.6877 6.12611 2.71309
14 1 1 15.2464 5.79557 3.37488
15 1 1 15.6569 6.17099 2.54296
16 1 1 19.0135 19.1266 16.4979
17 1 1 19.6493 19.6137 17.1247
18 1 1 0.147778 18.439 16.9393
19 1 1 15.483 13.7928 3.17116
20 1 1 15.7893 14.1785 3.96458
21 1 1 15.3373 14.9382 4.27601
22 1 1 14.9401 14.4446 3.60548
ITEM: TIMESTEP
30000
ITEM: NUMBER OF ATOMS
22
ITEM: BOX BOUNDS pp pp pp
0.0000000000000000e+00 2.0000000000000000e+01
0.0000000000000000e+00 2.0000000000000000e+01
0.0000000000000000e+00 2.0000000000000000e+01
ITEM: ATOMS id type mol x y z
1 1 1 20.0657 19.5491 16.189
2 1 1 0.612907 19.7209 17.1268
3 1 1 1.64409 19.5307 17.1425
4 1 1 1.43866 19.85 18.1112
5 1 1 9.02725 0.297486 1.13325
6 1 1 8.88052 0.550735 2.10143
7 1 1 8.41246 19.7105 2.3401
8 1 1 9.11656 19.4847 1.74713
9 1 1 20.0061 0.477764 15.6918
10 1 1 19.8136 0.785959 16.9638
11 1 1 0.20436 0.906267 17.8935
12 1 1 15.045 6.83273 2.15917
13 1 1 14.6031 6.17284 2.6163
14 1 1 15.2609 5.74708 3.25262
15 1 1 15.7434 6.22407 2.59645
16 1 1 19.0118 19.41 16.2893
17 1 1 19.4029 19.4902 17.1758
18 1 1 0.450051 18.917 17.295
19 1 1 15.4061 13.8118 3.23544
20 1 1 15.8651 14.1514 4.07027
21 1 1 15.4059 15.0021 4.26954
22 1 1 14.8707 14.5768 3.539
ITEM: TIMESTEP
35000
ITEM: NUMBER OF ATOMS
22
ITEM: BOX BOUNDS pp pp pp
0.0000000000000000e+00 2.0000000000000000e+01
0.0000000000000000e+00 2.0000000000000000e+01
0.0000000000000000e+00 2.0000000000000000e+01
ITEM: ATOMS id type mol x y z
1 1 1 0.240504 19.756 16.4693
2 1 1 0.83423 0.418877 16.9339
3 1 1 1.42659 19.364 16.9973
4 1 1 0.940036 19.7444 17.7816
5 1 1 8.98409 0.273828 1.25679
6 1 1 8.84843 0.602763 2.11872
7 1 1 8.39305 19.8055 2.26235
8 1 1 9.11476 19.4563 1.69159
9 1 1 0.154144 0.513269 15.9774
10 1 1 20.004 0.679442 16.7978
11 1 1 0.402206 0.6098 17.9416
12 1 1 15.0671 6.86291 2.30543
13 1 1 14.4878 6.12232 2.63845
14 1 1 15.2197 5.72663 3.09101
15 1 1 15.7962 6.37773 2.59349
16 1 1 19.0928 19.5917 16.3506
17 1 1 19.3848 19.0289 17.1189
18 1 1 0.162317 19.1389 17.6604
19 1 1 15.3585 13.8664 3.42691
20 1 1 15.9124 14.1624 4.11638
21 1 1 15.4843 15.0231 4.17855
22 1 1 14.9091 14.6993 3.52651
ITEM: TIMESTEP
40000
ITEM: NUMBER OF ATOMS
22
ITEM: BOX BOUNDS pp pp pp
0.0000000000000000e+00 2.0000000000000000e+01
0.0000000000000000e+00 2.0000000000000000e+01
0.0000000000000000e+00 2.0000000000000000e+01
ITEM: ATOMS id type mol x y z
1 1 1 0.410957 19.9753 16.8649
2 1 1 1.19937 0.556036 16.5964
3 1 1 1.15893 19.5636 16.8036
4 1 1 0.737831 19.5736 17.6108
5 1 1 8.9409 0.305537 1.27546
6 1 1 8.8237 0.746957 2.1731
7 1 1 8.42026 19.8409 2.22564
8 1 1 9.09617 19.4163 1.75689
9 1 1 0.368909 0.555313 16.02
10 1 1 19.8521 0.823886 17.0451
11 1 1 0.401757 0.454066 17.7471
12 1 1 14.9928 6.89755 2.43847
13 1 1 14.4188 6.18044 2.61622
14 1 1 15.2304 5.7946 2.97198
15 1 1 15.856 6.4521 2.69511
16 1 1 19.4053 19.6215 16.4697
17 1 1 19.4393 18.7149 16.949
18 1 1 19.7078 19.2457 17.8983
19 1 1 15.2492 13.896 3.59742
20 1 1 16.0038 14.1929 4.18497
21 1 1 15.6202 15.0647 4.12847
22 1 1 14.9136 14.7998 3.46129
ITEM: TIMESTEP
45000
ITEM: NUMBER OF ATOMS
22
ITEM: BOX BOUNDS pp pp pp
0.0000000000000000e+00 2.0000000000000000e+01
0.0000000000000000e+00 2.0000000000000000e+01
0.0000000000000000e+00 2.0000000000000000e+01
ITEM: ATOMS id type mol x y z
1 1 1 0.42342 0.338506 17.0576
2 1 1 1.4495 0.503386 16.3822
3 1 1 1.27435 19.4814 16.5497
4 1 1 0.744966 19.2232 17.6042
5 1 1 8.94062 0.266079 1.40275
6 1 1 8.81387 0.833137 2.13852
7 1 1 8.46616 19.981 2.22395
8 1 1 9.08573 19.3909 1.68442
9 1 1 0.308083 0.692677 16.1503
10 1 1 19.71 0.993342 16.8824
11 1 1 0.333919 0.593332 17.9568
12 1 1 14.9956 6.92698 2.52768
13 1 1 14.3296 6.18437 2.61746
14 1 1 15.1994 5.85189 2.89187
15 1 1 15.8251 6.58341 2.78685
16 1 1 19.643 19.5959 16.7003
17 1 1 19.5566 18.7112 17.0264
18 1 1 19.2137 19.1314 17.8489
19 1 1 15.197 14.0204 3.80877
20 1 1 16.06 14.2204 4.18034
21 1 1 15.6885 15.0682 4.00457
22 1 1 14.9284 14.8797 3.47869
ITEM: TIMESTEP
50000
ITEM: NUMBER OF ATOMS
22
ITEM: BOX BOUNDS pp pp pp
0.0000000000000000e+00 2.0000000000000000e+01
0.0000000000000000e+00 2.0000000000000000e+01
0.0000000000000000e+00 2.0000000000000000e+01
ITEM: ATOMS id type mol x y z
1 1 1 0.682451 0.395388 16.8883
2 1 1 1.33557 0.340606 16.432
3 1 1 1.27976 19.4041 16.6298
4 1 1 0.847692 18.9969 17.275
5 1 1 9.04585 0.303942 1.43095
6 1 1 8.8317 0.950524 2.15138
7 1 1 8.49194 19.9694 2.23736
8 1 1 8.98813 19.3553 1.70021
9 1 1 0.124786 0.899924 16.1437
10 1 1 19.8315 1.01942 17.0791
11 1 1 -0.0689475 0.947143 17.985
12 1 1 14.9135 6.88472 2.56803
13 1 1 14.2907 6.18755 2.58307
14 1 1 15.1899 5.93101 2.80751
15 1 1 15.7872 6.672 2.93971
16 1 1 19.9898 19.6854 17.0334
17 1 1 19.7024 18.806 17.1921
18 1 1 18.8103 18.9522 17.7037
19 1 1 15.1903 14.1725 3.99534
20 1 1 16.1514 14.2341 4.21245
21 1 1 15.7905 15.1157 3.89029
22 1 1 14.8872 14.9545 3.52211
ITEM: TIMESTEP
55000
ITEM: NUMBER OF ATOMS
22
ITEM: BOX BOUNDS pp pp pp
0.0000000000000000e+00 2.0000000000000000e+01
0.0000000000000000e+00 2.0000000000000000e+01
0.0000000000000000e+00 2.0000000000000000e+01
ITEM: ATOMS id type mol x y z
1 1 1 0.64975 0.482839 16.8646
2 1 1 1.67875 0.327906 16.1202
3 1 1 1.36213 19.3093 16.5831
4 1 1 0.85534 18.7424 17.1567
5 1 1 9.16523 0.28114 1.48855
6 1 1 8.8082 0.900099 2.10866
7 1 1 8.57037 0.0267858 2.30737
8 1 1 8.95751 19.378 1.67209
9 1 1 0.0450745 1.01044 16.2384
10 1 1 19.833 1.1273 17.1833
11 1 1 19.5245 1.30108 18.1494
12 1 1 14.9032 6.94314 2.57882
13 1 1 14.2403 6.13057 2.56962
14 1 1 15.176 5.98048 2.68825
15 1 1 15.7158 6.70317 3.0623
16 1 1 0.22276 19.7305 17.2953
17 1 1 19.6445 18.8526 17.394
18 1 1 18.6055 18.7917 17.4853
19 1 1 15.2537 14.331 4.14619
20 1 1 16.1866 14.3058 4.17256
21 1 1 15.849 15.0868 3.76234
22 1 1 14.9245 15.0225 3.56307
ITEM: TIMESTEP
60000
ITEM: NUMBER OF ATOMS
22
ITEM: BOX BOUNDS pp pp pp
0.0000000000000000e+00 2.0000000000000000e+01
0.0000000000000000e+00 2.0000000000000000e+01
0.0000000000000000e+00 2.0000000000000000e+01
ITEM: ATOMS id type mol x y z
1 1 1 0.902415 0.409768 16.5347
2 1 1 1.67149 0.220133 16.1591
3 1 1 1.46352 19.291 16.5183
4 1 1 0.909755 18.548 17.0536
5 1 1 9.24856 0.297672 1.52276
6 1 1 8.77916 0.935859 2.08007
7 1 1 8.62614 19.9897 2.39818
8 1 1 8.92093 19.3811 1.68818
9 1 1 0.086022 1.08277 16.4332
10 1 1 19.6339 1.41152 17.3664
11 1 1 19.2375 1.57099 18.2573
12 1 1 14.8303 6.93728 2.54891
13 1 1 14.2773 6.19619 2.56977
14 1 1 15.229 5.97448 2.55389
15 1 1 15.5926 6.69025 3.09054
16 1 1 0.369266 19.7303 17.4609
17 1 1 19.5141 19.0254 17.5589
18 1 1 18.6311 18.668 17.2412
19 1 1 15.2384 14.4544 4.26934
20 1 1 16.216 14.3102 4.12528
21 1 1 15.9185 15.0863 3.6245
22 1 1 14.9229 15.0909 3.58358
ITEM: TIMESTEP
65000
ITEM: NUMBER OF ATOMS
22
ITEM: BOX BOUNDS pp pp pp
0.0000000000000000e+00 2.0000000000000000e+01
0.0000000000000000e+00 2.0000000000000000e+01
0.0000000000000000e+00 2.0000000000000000e+01
ITEM: ATOMS id type mol x y z
1 1 1 0.64882 0.212352 16.5773
2 1 1 1.82074 -0.0207051 16.167
3 1 1 1.40972 19.23 16.5514
4 1 1 1.07218 18.4959 16.8714
5 1 1 9.35459 0.289727 1.57801
6 1 1 8.73644 0.859829 2.05138
7 1 1 8.75731 0.017848 2.46692
8 1 1 8.88489 19.4813 1.71013
9 1 1 0.179674 1.07292 16.8732
10 1 1 19.5345 1.59805 17.3605
11 1 1 19.1282 1.78423 18.2441
12 1 1 14.7881 7.05357 2.50641
13 1 1 14.3447 6.1826 2.58806
14 1 1 15.249 5.92829 2.46142
15 1 1 15.4428 6.64469 3.07384
16 1 1 0.414341 19.7561 17.288
17 1 1 19.4899 19.3122 17.6332
18 1 1 18.8105 18.6241 17.0988
19 1 1 15.2742 14.5521 4.31255
20 1 1 16.1355 14.3129 4.07939
21 1 1 15.9513 15.0532 3.49828
22 1 1 14.9966 15.103 3.62626
ITEM: TIMESTEP
70000
ITEM: NUMBER OF ATOMS
22
ITEM: BOX BOUNDS pp pp pp
0.0000000000000000e+00 2.0000000000000000e+01
0.0000000000000000e+00 2.0000000000000000e+01
0.0000000000000000e+00 2.0000000000000000e+01
ITEM: ATOMS id type mol x y z
1 1 1 0.792317 0.180679 16.425
2 1 1 1.6335 0.10641 16.1657
3 1 1 1.37634 19.191 16.6062
4 1 1 1.11565 18.2175 16.8194
5 1 1 9.43124 0.331991 1.62822
6 1 1 8.69605 0.82606 1.97964
7 1 1 8.8957 0.0173535 2.56189
8 1 1 8.8471 19.5274 1.6805
9 1 1 0.287651 0.950001 17.2287
10 1 1 19.5254 1.73632 17.3555
11 1 1 19.1357 2.02489 18.1797
12 1 1 14.7333 7.10079 2.47093
13 1 1 14.3877 6.23154 2.60803
14 1 1 15.2819 5.87826 2.40792
15 1 1 15.3263 6.62757 3.03749
16 1 1 0.325543 19.6461 17.2674
17 1 1 19.4353 19.4946 17.5509
18 1 1 19.1159 18.7794 17.1131
19 1 1 15.2269 14.5981 4.43386
20 1 1 16.1246 14.3177 4.04696
21 1 1 15.9575 14.9943 3.35867
22 1 1 15.0681 15.1705 3.62254
ITEM: TIMESTEP
75000
ITEM: NUMBER OF ATOMS
22
ITEM: BOX BOUNDS pp pp pp
0.0000000000000000e+00 2.0000000000000000e+01
0.0000000000000000e+00 2.0000000000000000e+01
0.0000000000000000e+00 2.0000000000000000e+01
ITEM: ATOMS id type mol x y z
1 1 1 0.642391 0.366632 16.6472
2 1 1 1.54691 0.110206 16.1867
3 1 1 1.23748 19.1075 16.614
4 1 1 1.15901 18.1073 16.723
5 1 1 9.49119 0.333363 1.64257
6 1 1 8.65295 0.693123 2.02136
7 1 1 9.00018 0.0213695 2.55661
8 1 1 8.84186 19.6668 1.71286
9 1 1 0.326347 0.809475 17.3509
10 1 1 19.7073 1.66054 17.3376
11 1 1 19.1935 2.23554 18.081
12 1 1 14.6808 7.16058 2.45566
13 1 1 14.4081 6.21443 2.61005
14 1 1 15.274 5.87343 2.42066
15 1 1 15.2718 6.62228 3.01522
16 1 1 0.309419 19.5787 17.1237
17 1 1 19.3825 19.7674 17.587
18 1 1 19.3048 18.7874 17.0935
19 1 1 15.2342 14.6081 4.45495
20 1 1 15.9987 14.3758 4.02577
21 1 1 15.9879 14.9335 3.2469
22 1 1 15.1314 15.1641 3.70638
ITEM: TIMESTEP
80000
ITEM: NUMBER OF ATOMS
22
ITEM: BOX BOUNDS pp pp pp
0.0000000000000000e+00 2.0000000000000000e+01
0.0000000000000000e+00 2.0000000000000000e+01
0.0000000000000000e+00 2.0000000000000000e+01
ITEM: ATOMS id type mol x y z
1 1 1 0.625063 0.423961 16.6874
2 1 1 1.37836 19.9092 16.3412
3 1 1 1.03905 19.0846 16.5233
4 1 1 1.18204 18.1941 16.6001
5 1 1 9.49172 0.37701 1.63408
6 1 1 8.6293 0.639959 2.01506
7 1 1 9.10509 19.9663 2.61705
8 1 1 8.78445 19.704 1.70517
9 1 1 0.270022 0.805057 17.5286
10 1 1 19.8274 1.68623 17.452
11 1 1 19.351 2.29583 17.8258
12 1 1 14.6649 7.11045 2.46304
13 1 1 14.3738 6.21808 2.59198
14 1 1 15.2887 5.8597 2.44394
15 1 1 15.2468 6.62907 3.04563
16 1 1 0.211198 19.4839 17.0731
17 1 1 19.4647 19.8488 17.5063
18 1 1 19.4478 18.9425 17.1973
19 1 1 15.1226 14.569 4.494
20 1 1 15.9341 14.3498 3.94943
21 1 1 15.9415 14.8625 3.12548
22 1 1 15.2544 15.1441 3.70673
ITEM: TIMESTEP
85000
ITEM: NUMBER OF ATOMS
22
ITEM: BOX BOUNDS pp pp pp
0.0000000000000000e+00 2.0000000000000000e+01
0.0000000000000000e+00 2.0000000000000000e+01
0.0000000000000000e+00 2.0000000000000000e+01
ITEM: ATOMS id type mol x y z
1 1 1 0.531121 0.416898 16.7495
2 1 1 1.26989 19.9076 16.4862
3 1 1 0.814941 19.015 16.3808
4 1 1 1.28698 18.0896 16.5036
5 1 1 9.44213 0.395868 1.57951
6 1 1 8.62944 0.679644 2.10599
7 1 1 9.10831 20.0034 2.5488
8 1 1 8.79343 19.6692 1.72595
9 1 1 0.283903 0.721759 17.6858
10 1 1 19.9938 1.61941 17.4212
11 1 1 19.3396 2.52714 17.7089
12 1 1 14.6993 7.05961 2.46084
13 1 1 14.3411 6.14561 2.54948
14 1 1 15.2472 5.88758 2.51204
15 1 1 15.286 6.65787 3.09835
16 1 1 0.243633 19.571 16.9814
17 1 1 19.47 19.9433 17.4638
18 1 1 19.4698 18.9709 17.3238
19 1 1 15.0981 14.4947 4.4287
20 1 1 15.8454 14.3098 3.8696
21 1 1 15.9036 14.7929 3.02479
22 1 1 15.2893 15.1186 3.73492
ITEM: TIMESTEP
90000
ITEM: NUMBER OF ATOMS
22
ITEM: BOX BOUNDS pp pp pp
0.0000000000000000e+00 2.0000000000000000e+01
0.0000000000000000e+00 2.0000000000000000e+01
0.0000000000000000e+00 2.0000000000000000e+01
ITEM: ATOMS id type mol x y z
1 1 1 0.488845 0.583864 16.802
2 1 1 1.04221 19.7617 16.5687
3 1 1 0.867744 18.8822 16.15
4 1 1 1.32747 18.1151 16.3419
5 1 1 9.3571 0.347304 1.58249
6 1 1 8.6396 0.790733 2.18071
7 1 1 9.08787 0.0113834 2.49751
8 1 1 8.80767 19.5937 1.67796
9 1 1 0.295484 0.734818 17.715
10 1 1 19.9866 1.7011 17.5
11 1 1 19.4943 2.48467 17.5313
12 1 1 14.722 6.96493 2.44165
13 1 1 14.317 6.1042 2.51531
14 1 1 15.2757 5.88537 2.61579
15 1 1 15.3425 6.69389 3.13159
16 1 1 0.210958 19.567 17.0098
17 1 1 19.4368 0.0370141 17.4715
18 1 1 19.4353 18.9752 17.4574
19 1 1 15.0894 14.4238 4.35656
20 1 1 15.8266 14.2223 3.82513
21 1 1 15.8418 14.7148 2.99047
22 1 1 15.3098 15.1456 3.68189
ITEM: TIMESTEP
95000
ITEM: NUMBER OF ATOMS
22
ITEM: BOX BOUNDS pp pp pp
0.0000000000000000e+00 2.0000000000000000e+01
0.0000000000000000e+00 2.0000000000000000e+01
0.0000000000000000e+00 2.0000000000000000e+01
ITEM: ATOMS id type mol x y z
1 1 1 0.492293 0.457489 16.8394
2 1 1 0.979222 19.7117 16.4618
3 1 1 0.897681 18.9419 15.9542
4 1 1 1.39804 18.09 16.1986
5 1 1 9.25762 0.393891 1.57623
6 1 1 8.69781 0.865213 2.19431
7 1 1 9.02359 19.9305 2.51
8 1 1 8.8176 19.4982 1.61993
9 1 1 0.285447 0.796559 17.761
10 1 1 0.0323363 1.67693 17.5945
11 1 1 19.637 2.5314 17.3435
12 1 1 14.7568 6.86335 2.41741
13 1 1 14.3467 5.99862 2.52036
14 1 1 15.2787 5.89483 2.71902
15 1 1 15.3568 6.75648 3.19473
16 1 1 0.0628916 19.664 17.1418
17 1 1 19.3645 20.0121 17.544
18 1 1 19.3269 19.1034 17.6262
19 1 1 15.0651 14.4313 4.22676
20 1 1 15.8848 14.0852 3.75367
21 1 1 15.7879 14.6513 2.98153
22 1 1 15.2881 15.1209 3.65264
ITEM: TIMESTEP
100000
ITEM: NUMBER OF ATOMS
22
ITEM: BOX BOUNDS pp pp pp
0.0000000000000000e+00 2.0000000000000000e+01
0.0000000000000000e+00 2.0000000000000000e+01
0.0000000000000000e+00 2.0000000000000000e+01
ITEM: ATOMS id type mol x y z
1 1 1 0.556286 0.414581 16.9081
2 1 1 1.01728 19.756 16.352
3 1 1 0.979165 18.9239 15.7883
4 1 1 1.41929 18.1493 16.0783
5 1 1 9.22738 0.370846 1.54032
6 1 1 8.74574 0.808492 2.26143
7 1 1 8.89653 19.9307 2.47201
8 1 1 8.86019 19.5195 1.64167
9 1 1 0.255605 0.727036 17.7514
10 1 1 0.0264329 1.72723 17.6754
11 1 1 19.7564 2.57459 17.1687
12 1 1 14.83 6.76748 2.40559
13 1 1 14.3532 5.90874 2.51071
14 1 1 15.2842 5.92903 2.83785
15 1 1 15.3811 6.77245 3.21332
16 1 1 -0.00739297 19.6368 17.2238
17 1 1 19.1365 0.163587 17.6875
18 1 1 19.1676 19.128 17.7983
19 1 1 15.0844 14.3486 4.09072
20 1 1 15.8201 13.9738 3.70291
21 1 1 15.707 14.5769 2.99286
22 1 1 15.3023 15.1933 3.61743
ITEM: TIMESTEP
105000
ITEM: NUMBER OF ATOMS
22
ITEM: BOX BOUNDS pp pp pp
0.0000000000000000e+00 2.0000000000000000e+01
0.0000000000000000e+00 2.0000000000000000e+01
0.0000000000000000e+00 2.0000000000000000e+01
ITEM: ATOMS id type mol x y z
1 1 1 0.594563 0.25975 16.9822
2 1 1 1.04048 19.7428 16.3012
3 1 1 1.03447 19.0373 15.6568
4 1 1 1.47288 18.2173 16.0115
5 1 1 9.22702 0.410873 1.55836
6 1 1 8.76356 0.887092 2.28335
7 1 1 8.80958 19.8687 2.52263
8 1 1 8.91376 19.4625 1.58023
9 1 1 0.127238 0.794096 17.6894
10 1 1 0.0517049 1.73873 17.6145
11 1 1 19.8941 2.5082 17.1326
12 1 1 14.8952 6.64854 2.41358
13 1 1 14.3993 5.85254 2.4676
14 1 1 15.2656 5.88221 2.88538
15 1 1 15.3609 6.85093 3.23584
16 1 1 19.8573 19.7971 17.2982
17 1 1 19.1275 0.137547 17.7073
18 1 1 19.03 19.2169 17.9271
19 1 1 15.0446 14.3779 3.9949
20 1 1 15.8447 13.82 3.61598
21 1 1 15.6497 14.5316 2.96141
22 1 1 15.3405 15.1565 3.5864
ITEM: TIMESTEP
110000
ITEM: NUMBER OF ATOMS
22
ITEM: BOX BOUNDS pp pp pp
0.0000000000000000e+00 2.0000000000000000e+01
0.0000000000000000e+00 2.0000000000000000e+01
0.0000000000000000e+00 2.0000000000000000e+01
ITEM: ATOMS id type mol x y z
1 1 1 0.689414 0.262933 17.0707
2 1 1 1.01476 19.7623 16.2823
3 1 1 1.09264 19.1242 15.5623
4 1 1 1.52145 18.3603 15.8864
5 1 1 9.2041 0.407598 1.59059
6 1 1 8.80534 0.854566 2.27388
7 1 1 8.7386 19.9165 2.45354
8 1 1 9.01945 19.49 1.63489
9 1 1 0.0459836 0.758646 17.5745
10 1 1 0.118386 1.69667 17.6189
11 1 1 20.0125 2.55206 17.0274
12 1 1 14.9089 6.66656 2.34081
13 1 1 14.4764 5.76638 2.47887
14 1 1 15.2856 5.89126 3.025
15 1 1 15.3075 6.77747 3.22653
16 1 1 19.7946 19.8191 17.2846
17 1 1 18.9754 0.216539 17.8085
18 1 1 18.9278 19.2601 18.0678
19 1 1 15.0916 14.2798 3.89311
20 1 1 15.7684 13.7626 3.54282
21 1 1 15.5935 14.4641 2.95101
22 1 1 15.3718 15.193 3.55654
ITEM: TIMESTEP
115000
ITEM: NUMBER OF ATOMS
22
ITEM: BOX BOUNDS pp pp pp
0.0000000000000000e+00 2.0000000000000000e+01
0.0000000000000000e+00 2.0000000000000000e+01
0.0000000000000000e+00 2.0000000000000000e+01
ITEM: ATOMS id type mol x y z
1 1 1 0.66813 0.230264 17.132
2 1 1 0.999214 19.8289 16.3249
3 1 1 1.12734 19.3108 15.5066
4 1 1 1.6157 18.4925 15.7745
5 1 1 9.25753 0.43246 1.4955
6 1 1 8.82624 0.912613 2.33998
7 1 1 8.66302 19.9462 2.38623
8 1 1 9.11354 19.4781 1.69741
9 1 1 19.9899 0.797691 17.5298
10 1 1 0.219628 1.75058 17.5503
11 1 1 0.107167 2.47822 17.0022
12 1 1 14.9303 6.64579 2.34171
13 1 1 14.6222 5.77638 2.46724
14 1 1 15.2967 5.78096 3.16407
15 1 1 15.2285 6.79609 3.22662
16 1 1 19.7022 19.8798 17.3071
17 1 1 18.9885 0.228689 17.775
18 1 1 18.8398 19.3674 18.2191
19 1 1 15.0853 14.3261 3.83193
20 1 1 15.7601 13.6613 3.48629
21 1 1 15.5316 14.4451 2.90632
22 1 1 15.4022 15.1736 3.54438
ITEM: TIMESTEP
120000
ITEM: NUMBER OF ATOMS
22
ITEM: BOX BOUNDS pp pp pp
0.0000000000000000e+00 2.0000000000000000e+01
0.0000000000000000e+00 2.0000000000000000e+01
0.0000000000000000e+00 2.0000000000000000e+01
ITEM: ATOMS id type mol x y z
1 1 1 0.549724 0.183485 17.1634
2 1 1 0.986208 19.8893 16.3633
3 1 1 1.18975 19.4575 15.5417
4 1 1 1.65671 18.6434 15.6591
5 1 1 9.26349 0.437878 1.57386
6 1 1 8.89366 0.882701 2.26008
7 1 1 8.59793 19.9709 2.28725
8 1 1 9.24494 19.4971 1.70659
9 1 1 19.9592 0.873841 17.5278
10 1 1 0.35241 1.75887 17.5649
11 1 1 0.16886 2.45363 16.872
12 1 1 14.9836 6.67061 2.30715
13 1 1 14.7412 5.69411 2.50881
14 1 1 15.3236 5.7748 3.26554
15 1 1 15.1624 6.69272 3.26127
16 1 1 19.6723 19.8643 17.267
17 1 1 18.9664 0.286304 17.7801
18 1 1 18.7752 19.457 18.3278
19 1 1 15.103 14.2947 3.82311
20 1 1 15.6872 13.6648 3.42433
21 1 1 15.531 14.4106 2.8808
22 1 1 15.4504 15.1365 3.50071
ITEM: TIMESTEP
125000
ITEM: NUMBER OF ATOMS
22
ITEM: BOX BOUNDS pp pp pp
0.0000000000000000e+00 2.0000000000000000e+01
0.0000000000000000e+00 2.0000000000000000e+01
0.0000000000000000e+00 2.0000000000000000e+01
ITEM: ATOMS id type mol x y z
1 1 1 0.479259 0.216252 17.2162
2 1 1 0.988993 19.949 16.4087
3 1 1 1.20911 19.6442 15.535
4 1 1 1.71051 18.7785 15.5836
5 1 1 9.34189 0.41229 1.54692
6 1 1 8.85201 0.875261 2.32131
7 1 1 8.60494 19.9557 2.09193
8 1 1 9.34913 19.4532 1.76342
9 1 1 19.9584 0.902551 17.5292
10 1 1 0.47423 1.80063 17.55
11 1 1 0.275684 2.40198 16.8168
12 1 1 15.0494 6.60602 2.30869
13 1 1 14.8452 5.69894 2.51043
14 1 1 15.3561 5.68842 3.3492
15 1 1 15.0542 6.64204 3.27056
16 1 1 19.5567 19.8129 17.2073
17 1 1 18.9407 0.302848 17.8026
18 1 1 18.7231 19.5886 18.3904
19 1 1 15.1089 14.2758 3.83972
20 1 1 15.5935 13.6169 3.35787
21 1 1 15.5593 14.4258 2.77789
22 1 1 15.472 15.1128 3.49531
ITEM: TIMESTEP
130000
ITEM: NUMBER OF ATOMS
22
ITEM: BOX BOUNDS pp pp pp
0.0000000000000000e+00 2.0000000000000000e+01
0.0000000000000000e+00 2.0000000000000000e+01
0.0000000000000000e+00 2.0000000000000000e+01
ITEM: ATOMS id type mol x y z
1 1 1 0.376476 0.173934 17.2492
2 1 1 0.931834 20.0132 16.4804
3 1 1 1.24998 19.7628 15.5533
4 1 1 1.7839 18.9922 15.523
5 1 1 9.41588 0.386891 1.62996
6 1 1 8.86641 0.77699 2.29878
7 1 1 8.5849 19.9377 1.93093
8 1 1 9.44604 19.4448 1.81387
9 1 1 19.9312 1.06121 17.5633
10 1 1 0.557034 1.76859 17.4925
11 1 1 0.437026 2.36503 16.7807
12 1 1 15.1664 6.60977 2.35689
13 1 1 14.9033 5.65146 2.56127
14 1 1 15.3331 5.71861 3.42059
15 1 1 14.9316 6.53375 3.2807
16 1 1 19.4951 19.8469 17.1467
17 1 1 18.9326 0.311521 17.7568
18 1 1 18.7051 19.6635 18.4884
19 1 1 15.1206 14.2831 3.87228
20 1 1 15.5507 13.6382 3.26605
21 1 1 15.5706 14.4434 2.74531
22 1 1 15.5055 15.0494 3.45584
ITEM: TIMESTEP
135000
ITEM: NUMBER OF ATOMS
22
ITEM: BOX BOUNDS pp pp pp
0.0000000000000000e+00 2.0000000000000000e+01
0.0000000000000000e+00 2.0000000000000000e+01
0.0000000000000000e+00 2.0000000000000000e+01
ITEM: ATOMS id type mol x y z
1 1 1 0.296744 0.246502 17.2552
2 1 1 0.867986 0.0671068 16.5326
3 1 1 1.23497 19.9339 15.6833
4 1 1 1.8503 19.1614 15.4635
5 1 1 9.57103 0.407747 1.6772
6 1 1 8.85827 0.673985 2.27958
7 1 1 8.55268 19.8285 1.84581
8 1 1 9.42573 19.459 1.93894
9 1 1 19.9285 1.05139 17.5327
10 1 1 0.62742 1.76032 17.4737
11 1 1 0.557323 2.38792 16.7086
12 1 1 15.2449 6.5407 2.42398
13 1 1 14.9639 5.65959 2.602
14 1 1 15.3167 5.70465 3.48719
15 1 1 14.741 6.50227 3.3035
16 1 1 19.4162 19.8598 17.0877
17 1 1 18.9048 0.291943 17.771
18 1 1 18.7385 19.7527 18.5472
19 1 1 15.1318 14.2616 3.88824
20 1 1 15.4943 13.6754 3.26027
21 1 1 15.6178 14.438 2.67002
22 1 1 15.5662 15.0237 3.48203
ITEM: TIMESTEP
140000
ITEM: NUMBER OF ATOMS
22
ITEM: BOX BOUNDS pp pp pp
0.0000000000000000e+00 2.0000000000000000e+01
0.0000000000000000e+00 2.0000000000000000e+01
0.0000000000000000e+00 2.0000000000000000e+01
ITEM: ATOMS id type mol x y z
1 1 1 0.180115 0.262447 17.2811
2 1 1 0.859522 0.110701 16.5473
3 1 1 1.29809 20.0206 15.7029
4 1 1 1.87689 19.3639 15.4288
5 1 1 9.65361 0.382787 1.72857
6 1 1 8.88605 0.563692 2.2463
7 1 1 8.56251 19.7749 1.76987
8 1 1 9.45482 19.5291 2.12245
9 1 1 19.9008 1.14169 17.5264
10 1 1 0.60448 1.78325 17.4359
11 1 1 0.649236 2.36005 16.7147
12 1 1 15.2371 6.57311 2.5484
13 1 1 14.9772 5.59755 2.6188
14 1 1 15.3103 5.73046 3.52025
15 1 1 14.6609 6.39387 3.24586
16 1 1 19.3349 19.8781 17.0474
17 1 1 18.902 0.311099 17.8011
18 1 1 18.786 19.8109 18.6391
19 1 1 15.1232 14.2784 3.95108
20 1 1 15.4545 13.6591 3.23425
21 1 1 15.6708 14.4271 2.67703
22 1 1 15.6163 14.9426 3.48446
ITEM: TIMESTEP
145000
ITEM: NUMBER OF ATOMS
22
ITEM: BOX BOUNDS pp pp pp
0.0000000000000000e+00 2.0000000000000000e+01
0.0000000000000000e+00 2.0000000000000000e+01
0.0000000000000000e+00 2.0000000000000000e+01
ITEM: ATOMS id type mol x y z
1 1 1 0.140492 0.233541 17.2947
2 1 1 0.810219 0.182251 16.6111
3 1 1 1.2931 0.178344 15.7101
4 1 1 1.98007 19.4416 15.3565
5 1 1 9.78736 0.352312 1.72296
6 1 1 8.94031 0.495541 2.2526
7 1 1 8.63074 19.7133 1.69888
8 1 1 9.41021 19.6199 2.27124
9 1 1 19.8524 1.18352 17.5046
10 1 1 0.567676 1.81253 17.4583
11 1 1 0.75137 2.4191 16.6601
12 1 1 15.2575 6.51766 2.6282
13 1 1 15.0222 5.61472 2.58003
14 1 1 15.3051 5.75164 3.50154
15 1 1 14.5102 6.27445 3.28305
16 1 1 19.2121 19.985 17.0189
17 1 1 18.9013 0.324813 17.8424
18 1 1 18.8275 19.8856 18.7247
19 1 1 15.1528 14.2402 3.96412
20 1 1 15.4071 13.7053 3.24092
21 1 1 15.7494 14.3864 2.6691
22 1 1 15.7005 14.8958 3.49151
ITEM: TIMESTEP
150000
ITEM: NUMBER OF ATOMS
22
ITEM: BOX BOUNDS pp pp pp
0.0000000000000000e+00 2.0000000000000000e+01
0.0000000000000000e+00 2.0000000000000000e+01
0.0000000000000000e+00 2.0000000000000000e+01
ITEM: ATOMS id type mol x y z
1 1 1 0.047719 0.283433 17.2622
2 1 1 0.774053 0.276157 16.5898
3 1 1 1.3154 0.22293 15.7876
4 1 1 1.91079 19.6421 15.3796
5 1 1 9.79415 0.321956 1.77702
6 1 1 8.9619 0.502125 2.17659
7 1 1 8.73473 19.723 1.6742
8 1 1 9.44493 19.6037 2.37359
9 1 1 19.8566 1.18662 17.4598
10 1 1 0.576744 1.88825 17.4045
11 1 1 0.798704 2.40312 16.6928
12 1 1 15.1916 6.53457 2.78944
13 1 1 15.0193 5.56487 2.56335
14 1 1 15.2777 5.7822 3.44613
15 1 1 14.4366 6.21253 3.25918
16 1 1 19.1546 0.160117 16.9708
17 1 1 18.9203 0.352718 17.9512
18 1 1 18.864 19.9232 18.8078
19 1 1 15.1988 14.2842 4.01253
20 1 1 15.3663 13.696 3.22556
21 1 1 15.8339 14.3225 2.68504
22 1 1 15.7837 14.82 3.50417
ITEM: TIMESTEP
155000
ITEM: NUMBER OF ATOMS
22
ITEM: BOX BOUNDS pp pp pp
0.0000000000000000e+00 2.0000000000000000e+01
0.0000000000000000e+00 2.0000000000000000e+01
0.0000000000000000e+00 2.0000000000000000e+01
ITEM: ATOMS id type mol x y z
1 1 1 0.0360918 0.29919 17.2072
2 1 1 0.671689 0.375529 16.58
3 1 1 1.30678 0.291074 15.9106
4 1 1 1.94873 19.787 15.3518
5 1 1 9.80566 0.267107 1.83361
6 1 1 8.92256 0.634542 2.10684
7 1 1 8.90317 19.7408 1.66842
8 1 1 9.47095 19.5773 2.3901
9 1 1 19.8776 1.24805 17.4255
10 1 1 0.563583 1.88084 17.4291
11 1 1 0.862272 2.41856 16.6518
12 1 1 15.1069 6.53335 2.84166
13 1 1 15.0548 5.62684 2.52406
14 1 1 15.2448 5.73236 3.46854
15 1 1 14.3387 6.07179 3.26213
16 1 1 19.097 0.342577 17.0263
17 1 1 18.974 0.343049 17.967
18 1 1 18.9039 19.94 18.8885
19 1 1 15.2203 14.2835 4.02891
20 1 1 15.331 13.7203 3.2633
21 1 1 15.9015 14.2394 2.66041
22 1 1 15.8412 14.7704 3.45124
ITEM: TIMESTEP
160000
ITEM: NUMBER OF ATOMS
22
ITEM: BOX BOUNDS pp pp pp
0.0000000000000000e+00 2.0000000000000000e+01
0.0000000000000000e+00 2.0000000000000000e+01
0.0000000000000000e+00 2.0000000000000000e+01
ITEM: ATOMS id type mol x y z
1 1 1 19.9585 0.304797 17.3296
2 1 1 0.628355 0.470104 16.5961
3 1 1 1.38582 0.319374 15.9355
4 1 1 1.97418 19.9148 15.3142
5 1 1 9.81854 0.296215 1.87545
6 1 1 8.9438 0.669337 1.99961
7 1 1 9.02171 19.7883 1.64935
8 1 1 9.53201 19.5085 2.47663
9 1 1 19.8521 1.27882 17.4276
10 1 1 0.643923 1.93958 17.4529
11 1 1 0.866428 2.36447 16.6272
12 1 1 14.9701 6.58077 2.88023
13 1 1 15.0991 5.68421 2.4964
14 1 1 15.2058 5.63745 3.48494
15 1 1 14.3481 5.93272 3.28971
16 1 1 19.0265 0.495287 17.0629